<?xml version="1.0" encoding="UTF-8"?>

<!-- generated on 2023-08-16 17:25:26 by Eclipse SUMO GUI Version 1.18.0
<configuration xmlns:xsi="http://www.w3.org/2001/XMLSchema-instance" xsi:noNamespaceSchemaLocation="http://sumo.dlr.de/xsd/sumoConfiguration.xsd">

    <input>
        <net-file value="E:\Program\python\ray\RL_signal_V0.1\utils\net\exp.net.xml"/>
        <route-files value="E:\Program\python\ray\RL_signal_V0.1\utils\net\exp.rou.xml"/>
        <additional-files value="E:\Program\python\ray\RL_signal_V0.1\utils\net\exp.add.xml"/>
    </input>

    <time>
        <begin value="0"/>
        <end value="3600"/>
    </time>

</configuration>
-->

<detector xmlns:xsi="http://www.w3.org/2001/XMLSchema-instance" xsi:noNamespaceSchemaLocation="http://sumo.dlr.de/xsd/det_e2_file.xsd">
</detector>
